<?xml version="1.0" encoding="UTF-8"?>

<!-- generated on 2025-02-26 09:53:02 by Eclipse SUMO GUI Version 1.22.0
<sumoConfiguration xmlns:xsi="http://www.w3.org/2001/XMLSchema-instance" xsi:noNamespaceSchemaLocation="http://sumo.dlr.de/xsd/sumoConfiguration.xsd">

    <input>
        <net-file value="C:\Clinical\RESCO\resco_benchmark\environments\2way_single\single-intersection.net.xml"/>
        <route-files value="C:\Clinical\RESCO\resco_benchmark\environments\2way_single\single-intersection-gen1_co2.rou.xml"/>
    </input>

    <output>
        <tripinfo-output value="C:\Clinical\RESCO\resco_benchmark\environments\2way_single\tripinfo.xml"/>
    </output>

    <emissions>
        <device.emissions.probability value="1"/>
    </emissions>

</sumoConfiguration>
-->

<tripinfos xmlns:xsi="http://www.w3.org/2001/XMLSchema-instance" xsi:noNamespaceSchemaLocation="http://sumo.dlr.de/xsd/tripinfo_file.xsd">
    <tripinfo id="flow_se_01.0" depart="0.00" departLane="s_t_0" departPos="5.10" departSpeed="0.00" departDelay="0.00" arrival="35.00" arrivalLane="t_e_0" arrivalPos="200.00" arrivalSpeed="13.38" duration="35.00" routeLength="403.93" waitingTime="0.00" waitingCount="0" stopTime="0.00" timeLoss="4.40" rerouteNo="0" devices="tripinfo_flow_se_01.0 emissions_flow_se_01.0" vType="DEFAULT_VEHTYPE" speedFactor="0.97" vaporized="">
        <emissions CO_abs="1202.897948" CO2_abs="107117.055799" HC_abs="7.631517" PMx_abs="1.438324" NOx_abs="39.161188" fuel_abs="34165.746057" electricity_abs="0"/>
    </tripinfo>
    <tripinfo id="flow_ns_01.0" depart="0.00" departLane="n_t_0" departPos="5.10" departSpeed="0.00" departDelay="0.00" arrival="37.00" arrivalLane="t_s_0" arrivalPos="200.00" arrivalSpeed="12.41" duration="37.00" routeLength="415.80" waitingTime="0.00" waitingCount="0" stopTime="0.00" timeLoss="4.30" rerouteNo="0" devices="tripinfo_flow_ns_01.0 emissions_flow_ns_01.0" vType="DEFAULT_VEHTYPE" speedFactor="0.94" vaporized="">
        <emissions CO_abs="1262.553700" CO2_abs="97017.209769" HC_abs="7.937704" PMx_abs="1.473509" NOx_abs="37.364600" fuel_abs="30944.233264" electricity_abs="0"/>
    </tripinfo>
    <tripinfo id="flow_se_02.0" depart="3.00" departLane="s_t_0" departPos="5.10" departSpeed="0.00" departDelay="3.00" arrival="37.00" arrivalLane="t_e_0" arrivalPos="200.00" arrivalSpeed="16.27" duration="34.00" routeLength="403.93" waitingTime="0.00" waitingCount="0" stopTime="0.00" timeLoss="8.46" rerouteNo="0" devices="tripinfo_flow_se_02.0 emissions_flow_se_02.0" vType="type_eu2" speedFactor="1.18" vaporized="">
        <emissions CO_abs="2839.105178" CO2_abs="133977.802185" HC_abs="0" PMx_abs="14.585151" NOx_abs="134.358290" fuel_abs="42751.049558" electricity_abs="0"/>
    </tripinfo>
    <tripinfo id="flow_se_03.0" depart="5.00" departLane="s_t_0" departPos="5.10" departSpeed="0.00" departDelay="5.00" arrival="39.00" arrivalLane="t_e_0" arrivalPos="200.00" arrivalSpeed="14.39" duration="34.00" routeLength="403.93" waitingTime="0.00" waitingCount="0" stopTime="0.00" timeLoss="6.99" rerouteNo="0" devices="tripinfo_flow_se_03.0 emissions_flow_se_03.0" vType="type_eu0" speedFactor="1.10" vaporized="">
        <emissions CO_abs="8074.740003" CO2_abs="140122.842942" HC_abs="589.498365" PMx_abs="12.773852" NOx_abs="0" fuel_abs="44678.848600" electricity_abs="0"/>
    </tripinfo>
    <tripinfo id="flow_sn_01.0" depart="0.00" departLane="s_t_1" departPos="5.10" departSpeed="0.00" departDelay="0.00" arrival="39.00" arrivalLane="t_n_0" arrivalPos="200.00" arrivalSpeed="12.33" duration="39.00" routeLength="415.80" waitingTime="0.00" waitingCount="0" stopTime="0.00" timeLoss="4.87" rerouteNo="0" devices="tripinfo_flow_sn_01.0 emissions_flow_sn_01.0" vType="DEFAULT_VEHTYPE" speedFactor="0.90" vaporized="">
        <emissions CO_abs="1492.617130" CO2_abs="107498.713256" HC_abs="9.240431" PMx_abs="1.644880" NOx_abs="41.794501" fuel_abs="34287.378164" electricity_abs="0"/>
    </tripinfo>
    <tripinfo id="flow_sn_02.0" depart="3.00" departLane="s_t_1" departPos="5.10" departSpeed="0.00" departDelay="3.00" arrival="39.00" arrivalLane="t_n_1" arrivalPos="200.00" arrivalSpeed="14.10" duration="36.00" routeLength="415.80" waitingTime="0.00" waitingCount="0" stopTime="0.00" timeLoss="6.92" rerouteNo="0" devices="tripinfo_flow_sn_02.0 emissions_flow_sn_02.0" vType="type_eu2" speedFactor="1.03" vaporized="">
        <emissions CO_abs="2281.553670" CO2_abs="118343.873038" HC_abs="0" PMx_abs="11.608452" NOx_abs="121.897540" fuel_abs="37762.630210" electricity_abs="0"/>
    </tripinfo>
    <tripinfo id="flow_ns_01_co2_1.0" depart="3.00" departLane="n_t_0" departPos="5.10" departSpeed="0.00" departDelay="3.00" arrival="40.00" arrivalLane="t_s_0" arrivalPos="200.00" arrivalSpeed="15.88" duration="37.00" routeLength="415.80" waitingTime="0.00" waitingCount="0" stopTime="0.00" timeLoss="10.95" rerouteNo="0" devices="tripinfo_flow_ns_01_co2_1.0 emissions_flow_ns_01_co2_1.0" vType="type1_co2" speedFactor="1.16" vaporized="">
        <emissions CO_abs="1379.881564" CO2_abs="365878.586284" HC_abs="364.425084" PMx_abs="195.819598" NOx_abs="5640.804556" fuel_abs="115237.446768" electricity_abs="0"/>
    </tripinfo>
    <tripinfo id="flow_sn_03.0" depart="5.00" departLane="s_t_1" departPos="5.10" departSpeed="0.00" departDelay="5.00" arrival="43.00" arrivalLane="t_n_0" arrivalPos="200.00" arrivalSpeed="12.23" duration="38.00" routeLength="415.80" waitingTime="0.00" waitingCount="0" stopTime="0.00" timeLoss="5.98" rerouteNo="0" devices="tripinfo_flow_sn_03.0 emissions_flow_sn_03.0" vType="type_eu0" speedFactor="0.96" vaporized="">
        <emissions CO_abs="7152.825662" CO2_abs="123779.912673" HC_abs="504.514952" PMx_abs="11.699826" NOx_abs="0" fuel_abs="39466.877780" electricity_abs="0"/>
    </tripinfo>
    <tripinfo id="flow_sw_01.0" depart="9.00" departLane="s_t_1" departPos="5.10" departSpeed="0.00" departDelay="9.00" arrival="45.00" arrivalLane="t_w_1" arrivalPos="200.00" arrivalSpeed="14.55" duration="36.00" routeLength="414.33" waitingTime="0.00" waitingCount="0" stopTime="0.00" timeLoss="7.98" rerouteNo="0" devices="tripinfo_flow_sw_01.0 emissions_flow_sw_01.0" vType="DEFAULT_VEHTYPE" speedFactor="1.09" vaporized="">
        <emissions CO_abs="1764.279811" CO2_abs="128214.383531" HC_abs="10.755016" PMx_abs="2.120794" NOx_abs="50.623539" fuel_abs="40894.554207" electricity_abs="0"/>
    </tripinfo>
    <tripinfo id="flow_nw_01.0" depart="8.00" departLane="n_t_0" departPos="5.10" departSpeed="0.00" departDelay="8.00" arrival="46.00" arrivalLane="t_w_0" arrivalPos="200.00" arrivalSpeed="13.01" duration="38.00" routeLength="403.93" waitingTime="0.00" waitingCount="0" stopTime="0.00" timeLoss="6.89" rerouteNo="0" devices="tripinfo_flow_nw_01.0 emissions_flow_nw_01.0" vType="DEFAULT_VEHTYPE" speedFactor="0.95" vaporized="">
        <emissions CO_abs="1633.747180" CO2_abs="112120.714125" HC_abs="9.948907" PMx_abs="1.690340" NOx_abs="43.554526" fuel_abs="35761.651219" electricity_abs="0"/>
    </tripinfo>
    <tripinfo id="flow_ne_01.0" depart="0.00" departLane="n_t_1" departPos="5.10" departSpeed="0.00" departDelay="0.00" arrival="49.00" arrivalLane="t_e_1" arrivalPos="200.00" arrivalSpeed="11.39" duration="49.00" routeLength="414.33" waitingTime="4.00" waitingCount="1" stopTime="0.00" timeLoss="13.61" rerouteNo="0" devices="tripinfo_flow_ne_01.0 emissions_flow_ne_01.0" vType="DEFAULT_VEHTYPE" speedFactor="0.86" vaporized="">
        <emissions CO_abs="3015.542170" CO2_abs="146588.399823" HC_abs="16.981235" PMx_abs="2.420422" NOx_abs="58.143348" fuel_abs="46755.774311" electricity_abs="0"/>
    </tripinfo>
    <tripinfo id="flow_en_01.0" depart="0.00" departLane="e_t_0" departPos="5.10" departSpeed="0.00" departDelay="0.00" arrival="50.00" arrivalLane="t_n_0" arrivalPos="200.00" arrivalSpeed="14.28" duration="50.00" routeLength="404.01" waitingTime="13.00" waitingCount="1" stopTime="0.00" timeLoss="22.28" rerouteNo="0" devices="tripinfo_flow_en_01.0 emissions_flow_en_01.0" vType="DEFAULT_VEHTYPE" speedFactor="1.06" vaporized="">
        <emissions CO_abs="4345.084337" CO2_abs="160210.716168" HC_abs="23.535464" PMx_abs="3.236295" NOx_abs="68.126263" fuel_abs="51100.587474" electricity_abs="0"/>
    </tripinfo>
    <tripinfo id="flow_we_01.0" depart="0.00" departLane="w_t_0" departPos="5.10" departSpeed="0.00" departDelay="0.00" arrival="51.00" arrivalLane="t_e_0" arrivalPos="200.00" arrivalSpeed="14.55" duration="51.00" routeLength="415.70" waitingTime="13.00" waitingCount="1" stopTime="0.00" timeLoss="23.37" rerouteNo="0" devices="tripinfo_flow_we_01.0 emissions_flow_we_01.0" vType="DEFAULT_VEHTYPE" speedFactor="1.09" vaporized="">
        <emissions CO_abs="4448.046723" CO2_abs="176893.497408" HC_abs="24.204149" PMx_abs="3.416453" NOx_abs="73.623308" fuel_abs="56421.698546" electricity_abs="0"/>
    </tripinfo>
    <tripinfo id="flow_ws_01.0" depart="3.00" departLane="w_t_0" departPos="5.10" departSpeed="0.00" departDelay="3.00" arrival="51.00" arrivalLane="t_s_0" arrivalPos="200.00" arrivalSpeed="16.16" duration="48.00" routeLength="403.93" waitingTime="11.00" waitingCount="1" stopTime="0.00" timeLoss="23.02" rerouteNo="0" devices="tripinfo_flow_ws_01.0 emissions_flow_ws_01.0" vType="DEFAULT_VEHTYPE" speedFactor="1.17" vaporized="">
        <emissions CO_abs="4512.657053" CO2_abs="176661.197753" HC_abs="24.655169" PMx_abs="3.556850" NOx_abs="74.668357" fuel_abs="56347.456221" electricity_abs="0"/>
    </tripinfo>
    <tripinfo id="flow_we_02.0" depart="0.00" departLane="w_t_1" departPos="5.10" departSpeed="0.00" departDelay="0.00" arrival="52.00" arrivalLane="t_e_0" arrivalPos="200.00" arrivalSpeed="13.13" duration="52.00" routeLength="415.70" waitingTime="13.00" waitingCount="1" stopTime="0.00" timeLoss="21.45" rerouteNo="0" devices="tripinfo_flow_we_02.0 emissions_flow_we_02.0" vType="type_eu2" speedFactor="1.00" vaporized="">
        <emissions CO_abs="5422.722909" CO2_abs="182736.511588" HC_abs="0" PMx_abs="24.316804" NOx_abs="237.678122" fuel_abs="58308.225813" electricity_abs="0"/>
    </tripinfo>
    <tripinfo id="flow_en_02.0" depart="3.00" departLane="e_t_0" departPos="5.10" departSpeed="0.00" departDelay="3.00" arrival="54.00" arrivalLane="t_n_0" arrivalPos="200.00" arrivalSpeed="12.54" duration="51.00" routeLength="404.01" waitingTime="9.00" waitingCount="1" stopTime="0.00" timeLoss="19.48" rerouteNo="0" devices="tripinfo_flow_en_02.0 emissions_flow_en_02.0" vType="type_eu2" speedFactor="0.94" vaporized="">
        <emissions CO_abs="5068.413281" CO2_abs="159933.273305" HC_abs="0" PMx_abs="22.943499" NOx_abs="211.447590" fuel_abs="51031.341134" electricity_abs="0"/>
    </tripinfo>
    <tripinfo id="flow_ws_02.0" depart="6.00" departLane="w_t_0" departPos="5.10" departSpeed="0.00" departDelay="6.00" arrival="55.00" arrivalLane="t_s_0" arrivalPos="200.00" arrivalSpeed="13.63" duration="49.00" routeLength="403.93" waitingTime="9.00" waitingCount="1" stopTime="0.00" timeLoss="20.07" rerouteNo="0" devices="tripinfo_flow_ws_02.0 emissions_flow_ws_02.0" vType="type_eu2" speedFactor="1.02" vaporized="">
        <emissions CO_abs="4977.666765" CO2_abs="167700.125460" HC_abs="0" PMx_abs="22.536450" NOx_abs="216.402121" fuel_abs="53509.987371" electricity_abs="0"/>
    </tripinfo>
    <tripinfo id="flow_en_03.0" depart="6.00" departLane="e_t_0" departPos="5.10" departSpeed="0.00" departDelay="6.00" arrival="56.00" arrivalLane="t_n_0" arrivalPos="200.00" arrivalSpeed="13.49" duration="50.00" routeLength="404.01" waitingTime="8.00" waitingCount="1" stopTime="0.00" timeLoss="20.74" rerouteNo="0" devices="tripinfo_flow_en_03.0 emissions_flow_en_03.0" vType="type_eu0" speedFactor="1.01" vaporized="">
        <emissions CO_abs="11500.788762" CO2_abs="185137.355820" HC_abs="611.074881" PMx_abs="23.063802" NOx_abs="0" fuel_abs="59032.024927" electricity_abs="0"/>
    </tripinfo>
    <tripinfo id="flow_we_03.0" depart="3.00" departLane="w_t_1" departPos="5.10" departSpeed="0.00" departDelay="3.00" arrival="56.00" arrivalLane="t_e_0" arrivalPos="200.00" arrivalSpeed="12.39" duration="53.00" routeLength="415.70" waitingTime="7.00" waitingCount="2" stopTime="0.00" timeLoss="19.73" rerouteNo="0" devices="tripinfo_flow_we_03.0 emissions_flow_we_03.0" vType="type_eu0" speedFactor="0.90" vaporized="">
        <emissions CO_abs="11309.159890" CO2_abs="191124.654853" HC_abs="703.367936" PMx_abs="21.196859" NOx_abs="0" fuel_abs="60939.572188" electricity_abs="0"/>
    </tripinfo>
    <tripinfo id="flow_ws_03.0" depart="9.00" departLane="w_t_0" departPos="5.10" departSpeed="0.00" departDelay="9.00" arrival="57.00" arrivalLane="t_s_0" arrivalPos="200.00" arrivalSpeed="14.19" duration="48.00" routeLength="403.93" waitingTime="6.00" waitingCount="1" stopTime="0.00" timeLoss="21.35" rerouteNo="0" devices="tripinfo_flow_ws_03.0 emissions_flow_ws_03.0" vType="type_eu0" speedFactor="1.10" vaporized="">
        <emissions CO_abs="12321.845734" CO2_abs="199731.546402" HC_abs="669.439313" PMx_abs="24.580974" NOx_abs="0" fuel_abs="63685.600422" electricity_abs="0"/>
    </tripinfo>
    <tripinfo id="flow_es_01.0" depart="0.00" departLane="e_t_1" departPos="5.10" departSpeed="0.00" departDelay="0.00" arrival="58.00" arrivalLane="t_s_1" arrivalPos="200.00" arrivalSpeed="14.41" duration="58.00" routeLength="414.25" waitingTime="15.00" waitingCount="2" stopTime="0.00" timeLoss="30.07" rerouteNo="0" devices="tripinfo_flow_es_01.0 emissions_flow_es_01.0" vType="DEFAULT_VEHTYPE" speedFactor="1.08" vaporized="">
        <emissions CO_abs="5481.126365" CO2_abs="180949.610702" HC_abs="29.234716" PMx_abs="3.741206" NOx_abs="77.587793" fuel_abs="57715.702478" electricity_abs="0"/>
    </tripinfo>
    <tripinfo id="flow_es_02.0" depart="3.00" departLane="e_t_1" departPos="5.10" departSpeed="0.00" departDelay="3.00" arrival="60.00" arrivalLane="t_s_1" arrivalPos="200.00" arrivalSpeed="13.58" duration="57.00" routeLength="414.25" waitingTime="11.00" waitingCount="2" stopTime="0.00" timeLoss="28.03" rerouteNo="0" devices="tripinfo_flow_es_02.0 emissions_flow_es_02.0" vType="type_eu2" speedFactor="1.03" vaporized="">
        <emissions CO_abs="6120.084548" CO2_abs="186285.984529" HC_abs="0" PMx_abs="27.240839" NOx_abs="255.436082" fuel_abs="59439.701124" electricity_abs="0"/>
    </tripinfo>
    <tripinfo id="flow_ew_02.0" depart="9.00" departLane="e_t_0" departPos="5.10" departSpeed="0.00" departDelay="9.00" arrival="60.00" arrivalLane="t_w_0" arrivalPos="200.00" arrivalSpeed="11.64" duration="51.00" routeLength="415.70" waitingTime="6.00" waitingCount="1" stopTime="0.00" timeLoss="16.99" rerouteNo="0" devices="tripinfo_flow_ew_02.0 emissions_flow_ew_02.0" vType="type_eu2" speedFactor="0.89" vaporized="">
        <emissions CO_abs="4306.539164" CO2_abs="159105.311613" HC_abs="0" PMx_abs="19.383143" NOx_abs="203.335878" fuel_abs="50768.404680" electricity_abs="0"/>
    </tripinfo>
    <tripinfo id="flow_ew_01.0" depart="9.00" departLane="e_t_1" departPos="5.10" departSpeed="0.00" departDelay="9.00" arrival="64.00" arrivalLane="t_w_1" arrivalPos="200.00" arrivalSpeed="13.48" duration="55.00" routeLength="415.70" waitingTime="5.00" waitingCount="2" stopTime="0.00" timeLoss="26.33" rerouteNo="0" devices="tripinfo_flow_ew_01.0 emissions_flow_ew_01.0" vType="DEFAULT_VEHTYPE" speedFactor="1.05" vaporized="">
        <emissions CO_abs="4202.602151" CO2_abs="159756.814655" HC_abs="22.789105" PMx_abs="2.996329" NOx_abs="66.514402" fuel_abs="50955.978726" electricity_abs="0"/>
    </tripinfo>
    <tripinfo id="flow_ew_03.0" depart="12.00" departLane="e_t_1" departPos="5.10" departSpeed="0.00" departDelay="12.00" arrival="65.00" arrivalLane="t_w_0" arrivalPos="200.00" arrivalSpeed="12.46" duration="53.00" routeLength="415.70" waitingTime="4.00" waitingCount="1" stopTime="0.00" timeLoss="21.07" rerouteNo="0" devices="tripinfo_flow_ew_03.0 emissions_flow_ew_03.0" vType="type_eu0" speedFactor="0.94" vaporized="">
        <emissions CO_abs="11745.509968" CO2_abs="191750.052921" HC_abs="652.811235" PMx_abs="22.931406" NOx_abs="0" fuel_abs="61139.941408" electricity_abs="0"/>
    </tripinfo>
    <tripinfo id="flow_es_03.0" depart="6.00" departLane="e_t_1" departPos="5.10" departSpeed="0.00" departDelay="6.00" arrival="66.00" arrivalLane="t_s_1" arrivalPos="200.00" arrivalSpeed="10.60" duration="60.00" routeLength="414.25" waitingTime="6.00" waitingCount="2" stopTime="0.00" timeLoss="24.00" rerouteNo="0" devices="tripinfo_flow_es_03.0 emissions_flow_es_03.0" vType="type_eu0" speedFactor="0.83" vaporized="">
        <emissions CO_abs="11157.780503" CO2_abs="185240.915643" HC_abs="638.246326" PMx_abs="22.048410" NOx_abs="0" fuel_abs="59063.451282" electricity_abs="0"/>
    </tripinfo>
    <tripinfo id="flow_ew_01.1" depart="36.00" departLane="e_t_0" departPos="5.10" departSpeed="0.00" departDelay="0.00" arrival="71.00" arrivalLane="t_w_0" arrivalPos="200.00" arrivalSpeed="13.05" duration="35.00" routeLength="415.70" waitingTime="0.00" waitingCount="0" stopTime="0.00" timeLoss="4.42" rerouteNo="0" devices="tripinfo_flow_ew_01.1 emissions_flow_ew_01.1" vType="DEFAULT_VEHTYPE" speedFactor="0.99" vaporized="">
        <emissions CO_abs="1150.784276" CO2_abs="102152.873421" HC_abs="7.533531" PMx_abs="1.459019" NOx_abs="38.868356" fuel_abs="32582.241434" electricity_abs="0"/>
    </tripinfo>
    <tripinfo id="flow_we_01.1" depart="36.00" departLane="w_t_0" departPos="5.10" departSpeed="0.00" departDelay="0.00" arrival="75.00" arrivalLane="t_e_0" arrivalPos="200.00" arrivalSpeed="12.20" duration="39.00" routeLength="415.70" waitingTime="0.00" waitingCount="0" stopTime="0.00" timeLoss="4.36" rerouteNo="0" devices="tripinfo_flow_we_01.1 emissions_flow_we_01.1" vType="DEFAULT_VEHTYPE" speedFactor="0.88" vaporized="">
        <emissions CO_abs="1348.569124" CO2_abs="106372.137135" HC_abs="8.509415" PMx_abs="1.485586" NOx_abs="40.101732" fuel_abs="33928.212789" electricity_abs="0"/>
    </tripinfo>
    <tripinfo id="flow_we_03.1" depart="40.00" departLane="w_t_0" departPos="5.10" departSpeed="0.00" departDelay="0.00" arrival="77.00" arrivalLane="t_e_0" arrivalPos="200.00" arrivalSpeed="13.16" duration="37.00" routeLength="415.70" waitingTime="0.00" waitingCount="0" stopTime="0.00" timeLoss="5.77" rerouteNo="0" devices="tripinfo_flow_we_03.1 emissions_flow_we_03.1" vType="type_eu0" speedFactor="0.97" vaporized="">
        <emissions CO_abs="7541.979128" CO2_abs="133414.235861" HC_abs="575.333877" PMx_abs="11.246142" NOx_abs="0" fuel_abs="42538.317116" electricity_abs="0"/>
    </tripinfo>
    <tripinfo id="flow_ew_02.1" depart="40.00" departLane="e_t_1" departPos="5.10" departSpeed="0.00" departDelay="0.00" arrival="78.00" arrivalLane="t_w_1" arrivalPos="200.00" arrivalSpeed="12.24" duration="38.00" routeLength="415.70" waitingTime="0.00" waitingCount="0" stopTime="0.00" timeLoss="4.06" rerouteNo="0" devices="tripinfo_flow_ew_02.1 emissions_flow_ew_02.1" vType="type_eu2" speedFactor="0.91" vaporized="">
        <emissions CO_abs="1961.004700" CO2_abs="109707.911018" HC_abs="0" PMx_abs="9.865557" NOx_abs="114.748173" fuel_abs="35007.156963" electricity_abs="0"/>
    </tripinfo>
    <tripinfo id="flow_ew_03.1" depart="40.00" departLane="e_t_0" departPos="5.10" departSpeed="0.00" departDelay="0.00" arrival="78.00" arrivalLane="t_w_0" arrivalPos="200.00" arrivalSpeed="11.82" duration="38.00" routeLength="415.70" waitingTime="0.00" waitingCount="0" stopTime="0.00" timeLoss="4.84" rerouteNo="0" devices="tripinfo_flow_ew_03.1 emissions_flow_ew_03.1" vType="type_eu0" speedFactor="0.91" vaporized="">
        <emissions CO_abs="6538.755806" CO2_abs="114326.342612" HC_abs="464.312410" PMx_abs="9.868299" NOx_abs="0" fuel_abs="36452.395832" electricity_abs="0"/>
    </tripinfo>
    <tripinfo id="flow_we_02.1" depart="40.00" departLane="w_t_1" departPos="5.10" departSpeed="0.00" departDelay="0.00" arrival="79.00" arrivalLane="t_e_0" arrivalPos="200.00" arrivalSpeed="13.37" duration="39.00" routeLength="415.70" waitingTime="0.00" waitingCount="0" stopTime="0.00" timeLoss="9.29" rerouteNo="0" devices="tripinfo_flow_we_02.1 emissions_flow_we_02.1" vType="type_eu2" speedFactor="1.02" vaporized="">
        <emissions CO_abs="3118.502030" CO2_abs="142793.704593" HC_abs="0" PMx_abs="15.542846" NOx_abs="149.736115" fuel_abs="45563.957687" electricity_abs="0"/>
    </tripinfo>
    <tripinfo id="flow_wn_01.0" depart="6.00" departLane="w_t_1" departPos="5.10" departSpeed="0.00" departDelay="6.00" arrival="83.00" arrivalLane="t_n_1" arrivalPos="200.00" arrivalSpeed="11.68" duration="77.00" routeLength="414.33" waitingTime="29.00" waitingCount="2" stopTime="0.00" timeLoss="42.21" rerouteNo="0" devices="tripinfo_flow_wn_01.0 emissions_flow_wn_01.0" vType="DEFAULT_VEHTYPE" speedFactor="0.88" vaporized="">
        <emissions CO_abs="7348.732523" CO2_abs="213044.285891" HC_abs="38.372912" PMx_abs="4.184750" NOx_abs="90.043574" fuel_abs="67953.429455" electricity_abs="0"/>
    </tripinfo>
    <tripinfo id="flow_wn_02.0" depart="9.00" departLane="w_t_1" departPos="5.10" departSpeed="0.00" departDelay="9.00" arrival="85.00" arrivalLane="t_n_1" arrivalPos="200.00" arrivalSpeed="11.40" duration="76.00" routeLength="414.33" waitingTime="24.00" waitingCount="2" stopTime="0.00" timeLoss="40.43" rerouteNo="0" devices="tripinfo_flow_wn_02.0 emissions_flow_wn_02.0" vType="type_eu2" speedFactor="0.85" vaporized="">
        <emissions CO_abs="8346.213484" CO2_abs="219688.713921" HC_abs="0" PMx_abs="34.862539" NOx_abs="346.226733" fuel_abs="70097.509624" electricity_abs="0"/>
    </tripinfo>
    <tripinfo id="flow_wn_03.0" depart="12.00" departLane="w_t_1" departPos="5.10" departSpeed="0.00" departDelay="12.00" arrival="88.00" arrivalLane="t_n_1" arrivalPos="200.00" arrivalSpeed="11.02" duration="76.00" routeLength="414.33" waitingTime="22.00" waitingCount="2" stopTime="0.00" timeLoss="40.49" rerouteNo="0" devices="tripinfo_flow_wn_03.0 emissions_flow_wn_03.0" vType="type_eu0" speedFactor="0.85" vaporized="">
        <emissions CO_abs="15230.340655" CO2_abs="249926.027482" HC_abs="800.395104" PMx_abs="33.161294" NOx_abs="0" fuel_abs="79688.746695" electricity_abs="0"/>
    </tripinfo>
    <tripinfo id="flow_ws_01.1" depart="60.00" departLane="w_t_0" departPos="5.10" departSpeed="0.00" departDelay="0.00" arrival="90.00" arrivalLane="t_s_0" arrivalPos="200.00" arrivalSpeed="15.30" duration="30.00" routeLength="403.93" waitingTime="0.00" waitingCount="0" stopTime="0.00" timeLoss="4.64" rerouteNo="0" devices="tripinfo_flow_ws_01.1 emissions_flow_ws_01.1" vType="DEFAULT_VEHTYPE" speedFactor="1.15" vaporized="">
        <emissions CO_abs="1391.570806" CO2_abs="110535.186912" HC_abs="8.743222" PMx_abs="1.822569" NOx_abs="43.086367" fuel_abs="35255.646098" electricity_abs="0"/>
    </tripinfo>
    <tripinfo id="flow_en_01.1" depart="60.00" departLane="e_t_0" departPos="5.10" departSpeed="0.00" departDelay="0.00" arrival="94.00" arrivalLane="t_n_0" arrivalPos="200.00" arrivalSpeed="12.92" duration="34.00" routeLength="404.01" waitingTime="0.00" waitingCount="0" stopTime="0.00" timeLoss="4.54" rerouteNo="0" devices="tripinfo_flow_en_01.1 emissions_flow_en_01.1" vType="DEFAULT_VEHTYPE" speedFactor="1.01" vaporized="">
        <emissions CO_abs="1376.120246" CO2_abs="96757.417690" HC_abs="8.519531" PMx_abs="1.657499" NOx_abs="38.891972" fuel_abs="30861.181976" electricity_abs="0"/>
    </tripinfo>
    <tripinfo id="flow_en_02.1" depart="63.00" departLane="e_t_0" departPos="5.10" departSpeed="0.00" departDelay="3.00" arrival="96.00" arrivalLane="t_n_0" arrivalPos="200.00" arrivalSpeed="14.30" duration="33.00" routeLength="404.01" waitingTime="0.00" waitingCount="0" stopTime="0.00" timeLoss="5.47" rerouteNo="0" devices="tripinfo_flow_en_02.1 emissions_flow_en_02.1" vType="type_eu2" speedFactor="1.09" vaporized="">
        <emissions CO_abs="2248.239952" CO2_abs="108175.495514" HC_abs="0" PMx_abs="11.572691" NOx_abs="111.124832" fuel_abs="34517.319781" electricity_abs="0"/>
    </tripinfo>
    <tripinfo id="flow_ws_02.1" depart="63.00" departLane="w_t_0" departPos="5.10" departSpeed="0.00" departDelay="3.00" arrival="97.00" arrivalLane="t_s_0" arrivalPos="200.00" arrivalSpeed="13.28" duration="34.00" routeLength="403.93" waitingTime="0.00" waitingCount="0" stopTime="0.00" timeLoss="3.99" rerouteNo="0" devices="tripinfo_flow_ws_02.1 emissions_flow_ws_02.1" vType="type_eu2" speedFactor="0.98" vaporized="">
        <emissions CO_abs="2022.460310" CO2_abs="109265.404154" HC_abs="0" PMx_abs="10.280577" NOx_abs="111.528768" fuel_abs="34865.708655" electricity_abs="0"/>
    </tripinfo>
    <tripinfo id="flow_sn_01.1" depart="36.00" departLane="s_t_0" departPos="5.10" departSpeed="0.00" departDelay="0.00" arrival="106.00" arrivalLane="t_n_0" arrivalPos="200.00" arrivalSpeed="12.01" duration="70.00" routeLength="415.80" waitingTime="29.00" waitingCount="1" stopTime="0.00" timeLoss="37.92" rerouteNo="0" devices="tripinfo_flow_sn_01.1 emissions_flow_sn_01.1" vType="DEFAULT_VEHTYPE" speedFactor="0.94" vaporized="">
        <emissions CO_abs="6851.211938" CO2_abs="201301.687698" HC_abs="35.866518" PMx_abs="4.077912" NOx_abs="85.519584" fuel_abs="64207.790298" electricity_abs="0"/>
    </tripinfo>
    <tripinfo id="flow_sn_03.1" depart="40.00" departLane="s_t_0" departPos="5.10" departSpeed="0.00" departDelay="0.00" arrival="108.00" arrivalLane="t_n_0" arrivalPos="200.00" arrivalSpeed="14.02" duration="68.00" routeLength="415.80" waitingTime="24.00" waitingCount="1" stopTime="0.00" timeLoss="38.58" rerouteNo="0" devices="tripinfo_flow_sn_03.1 emissions_flow_sn_03.1" vType="type_eu0" speedFactor="1.02" vaporized="">
        <emissions CO_abs="15809.448454" CO2_abs="257383.026406" HC_abs="825.170344" PMx_abs="34.083548" NOx_abs="0" fuel_abs="82067.588983" electricity_abs="0"/>
    </tripinfo>
    <tripinfo id="flow_se_01.1" depart="60.00" departLane="s_t_0" departPos="5.10" departSpeed="0.00" departDelay="0.00" arrival="109.00" arrivalLane="t_e_0" arrivalPos="200.00" arrivalSpeed="12.61" duration="49.00" routeLength="403.93" waitingTime="7.00" waitingCount="1" stopTime="0.00" timeLoss="19.66" rerouteNo="0" devices="tripinfo_flow_se_01.1 emissions_flow_se_01.1" vType="DEFAULT_VEHTYPE" speedFactor="1.00" vaporized="">
        <emissions CO_abs="3772.284249" CO2_abs="157132.859587" HC_abs="20.610716" PMx_abs="2.820567" NOx_abs="63.642769" fuel_abs="50119.012936" electricity_abs="0"/>
    </tripinfo>
    <tripinfo id="flow_ns_01_co2_2.0" depart="11.00" departLane="n_t_0" departPos="7.20" departSpeed="0.00" departDelay="11.00" arrival="110.00" arrivalLane="t_s_0" arrivalPos="200.00" arrivalSpeed="13.55" duration="99.00" routeLength="413.70" waitingTime="50.00" waitingCount="1" stopTime="0.00" timeLoss="68.65" rerouteNo="0" devices="tripinfo_flow_ns_01_co2_2.0 emissions_flow_ns_01_co2_2.0" vType="type2_co2" speedFactor="1.01" vaporized="">
        <emissions CO_abs="2001.217223" CO2_abs="1253786.303400" HC_abs="0" PMx_abs="262.313563" NOx_abs="11867.014440" fuel_abs="394402.967039" electricity_abs="0"/>
    </tripinfo>
    <tripinfo id="flow_ns_02.0" depart="15.00" departLane="n_t_0" departPos="5.10" departSpeed="0.00" departDelay="15.00" arrival="111.00" arrivalLane="t_s_1" arrivalPos="200.00" arrivalSpeed="13.55" duration="96.00" routeLength="415.80" waitingTime="47.00" waitingCount="1" stopTime="0.00" timeLoss="65.45" rerouteNo="0" devices="tripinfo_flow_ns_02.0 emissions_flow_ns_02.0" vType="type_eu2" speedFactor="1.01" vaporized="">
        <emissions CO_abs="12443.004007" CO2_abs="300150.465966" HC_abs="0" PMx_abs="51.287534" NOx_abs="499.297521" fuel_abs="95769.681129" electricity_abs="0"/>
    </tripinfo>
    <tripinfo id="flow_se_02.1" depart="63.00" departLane="s_t_0" departPos="5.10" departSpeed="0.00" departDelay="3.00" arrival="111.00" arrivalLane="t_e_0" arrivalPos="200.00" arrivalSpeed="13.23" duration="48.00" routeLength="403.93" waitingTime="6.00" waitingCount="1" stopTime="0.00" timeLoss="19.11" rerouteNo="0" devices="tripinfo_flow_se_02.1 emissions_flow_se_02.1" vType="type_eu2" speedFactor="1.02" vaporized="">
        <emissions CO_abs="4972.418102" CO2_abs="172388.624835" HC_abs="0" PMx_abs="22.865050" NOx_abs="214.173237" fuel_abs="55006.446026" electricity_abs="0"/>
    </tripinfo>
    <tripinfo id="flow_se_03.1" depart="66.00" departLane="s_t_0" departPos="5.10" departSpeed="0.00" departDelay="6.00" arrival="114.00" arrivalLane="t_e_0" arrivalPos="200.00" arrivalSpeed="12.63" duration="48.00" routeLength="403.93" waitingTime="4.00" waitingCount="1" stopTime="0.00" timeLoss="17.11" rerouteNo="0" devices="tripinfo_flow_se_03.1 emissions_flow_se_03.1" vType="type_eu0" speedFactor="0.97" vaporized="">
        <emissions CO_abs="10816.494498" CO2_abs="183911.242896" HC_abs="700.659454" PMx_abs="19.541361" NOx_abs="0" fuel_abs="58639.740877" electricity_abs="0"/>
    </tripinfo>
    <tripinfo id="flow_ns_02_co2_1.0" depart="19.00" departLane="n_t_0" departPos="5.10" departSpeed="0.00" departDelay="19.00" arrival="115.00" arrivalLane="t_s_0" arrivalPos="200.00" arrivalSpeed="13.27" duration="96.00" routeLength="415.80" waitingTime="45.00" waitingCount="1" stopTime="0.00" timeLoss="64.78" rerouteNo="0" devices="tripinfo_flow_ns_02_co2_1.0 emissions_flow_ns_02_co2_1.0" vType="type1_co2" speedFactor="0.97" vaporized="">
        <emissions CO_abs="2970.197916" CO2_abs="591996.113187" HC_abs="1098.681277" PMx_abs="421.284812" NOx_abs="8322.857653" fuel_abs="186455.547810" electricity_abs="0"/>
    </tripinfo>
    <tripinfo id="flow_sn_02.2" depart="80.00" departLane="s_t_0" departPos="5.10" departSpeed="0.00" departDelay="0.00" arrival="116.00" arrivalLane="t_n_0" arrivalPos="200.00" arrivalSpeed="12.59" duration="36.00" routeLength="415.80" waitingTime="0.00" waitingCount="0" stopTime="0.00" timeLoss="4.94" rerouteNo="0" devices="tripinfo_flow_sn_02.2 emissions_flow_sn_02.2" vType="type_eu2" speedFactor="0.97" vaporized="">