<?xml version="1.0" encoding="UTF-8"?>

<!-- generated on 2025-02-19 17:40:14 by Eclipse SUMO GUI Version 1.22.0
<sumoConfiguration xmlns:xsi="http://www.w3.org/2001/XMLSchema-instance" xsi:noNamespaceSchemaLocation="http://sumo.dlr.de/xsd/sumoConfiguration.xsd">

    <input>
        <net-file value="C:\Clinical\RESCO\resco_benchmark\environments\1way_single\single-intersection.net.xml"/>
        <route-files value="C:\Clinical\RESCO\resco_benchmark\environments\1way_single\single-intersection-gen.rou-big.xml"/>
    </input>

    <output>
        <tripinfo-output value="C:\Clinical\RESCO\resco_benchmark\environments\1way_single\single-intersection.output.tripinfo.xml"/>
    </output>

    <time>
        <begin value="0"/>
        <end value="150000"/>
    </time>

    <emissions>
        <device.emissions.probability value="1"/>
    </emissions>

</sumoConfiguration>
-->

<tripinfos xmlns:xsi="http://www.w3.org/2001/XMLSchema-instance" xsi:noNamespaceSchemaLocation="http://sumo.dlr.de/xsd/tripinfo_file.xsd">
    <tripinfo id="flow_se_0.0" depart="0.00" departLane="s_t_0" departPos="5.10" departSpeed="0.00" departDelay="0.00" arrival="24.00" arrivalLane="t_e_0" arrivalPos="142.80" arrivalSpeed="14.20" duration="24.00" routeLength="289.53" waitingTime="0.00" waitingCount="0" stopTime="0.00" timeLoss="3.84" rerouteNo="0" devices="tripinfo_flow_se_0.0 emissions_flow_se_0.0" vType="DEFAULT_VEHTYPE" speedFactor="1.08" vaporized="">
        <emissions CO_abs="1260.121347" CO2_abs="89901.569255" HC_abs="7.690097" PMx_abs="1.551314" NOx_abs="36.031590" fuel_abs="28674.440444" electricity_abs="0"/>
    </tripinfo>
    <tripinfo id="flow_sn_0.0" depart="3.00" departLane="s_t_0" departPos="5.10" departSpeed="0.00" departDelay="3.00" arrival="28.00" arrivalLane="t_n_0" arrivalPos="142.80" arrivalSpeed="13.96" duration="25.00" routeLength="294.90" waitingTime="0.00" waitingCount="0" stopTime="0.00" timeLoss="3.77" rerouteNo="0" devices="tripinfo_flow_sn_0.0 emissions_flow_sn_0.0" vType="DEFAULT_VEHTYPE" speedFactor="1.03" vaporized="">
        <emissions CO_abs="1138.368578" CO2_abs="85517.751084" HC_abs="7.017907" PMx_abs="1.367900" NOx_abs="33.385219" fuel_abs="27276.302770" electricity_abs="0"/>
    </tripinfo>
    <tripinfo id="flow_sw_0.0" depart="6.00" departLane="s_t_0" departPos="5.10" departSpeed="0.00" departDelay="6.00" arrival="37.00" arrivalLane="t_w_0" arrivalPos="142.80" arrivalSpeed="11.23" duration="31.00" routeLength="294.70" waitingTime="0.00" waitingCount="0" stopTime="0.00" timeLoss="5.43" rerouteNo="0" devices="tripinfo_flow_sw_0.0 emissions_flow_sw_0.0" vType="DEFAULT_VEHTYPE" speedFactor="0.83" vaporized="">
        <emissions CO_abs="1594.405012" CO2_abs="94072.504385" HC_abs="9.454288" PMx_abs="1.610527" NOx_abs="38.369638" fuel_abs="30004.940866" electricity_abs="0"/>
    </tripinfo>
    <tripinfo id="flow_ne_0.0" depart="0.00" departLane="n_t_0" departPos="5.10" departSpeed="0.00" departDelay="0.00" arrival="38.00" arrivalLane="t_e_0" arrivalPos="142.80" arrivalSpeed="13.84" duration="38.00" routeLength="294.70" waitingTime="7.00" waitingCount="1" stopTime="0.00" timeLoss="17.23" rerouteNo="0" devices="tripinfo_flow_ne_0.0 emissions_flow_ne_0.0" vType="DEFAULT_VEHTYPE" speedFactor="1.06" vaporized="">
        <emissions CO_abs="3225.268347" CO2_abs="137108.354950" HC_abs="17.852244" PMx_abs="2.655296" NOx_abs="57.469991" fuel_abs="43731.702255" electricity_abs="0"/>
    </tripinfo>
    <tripinfo id="flow_ns_0.0" depart="3.00" departLane="n_t_0" departPos="5.10" departSpeed="0.00" departDelay="3.00" arrival="41.00" arrivalLane="t_s_0" arrivalPos="142.80" arrivalSpeed="12.78" duration="38.00" routeLength="294.90" waitingTime="3.00" waitingCount="1" stopTime="0.00" timeLoss="14.60" rerouteNo="0" devices="tripinfo_flow_ns_0.0 emissions_flow_ns_0.0" vType="DEFAULT_VEHTYPE" speedFactor="0.94" vaporized="">
        <emissions CO_abs="2830.308994" CO2_abs="123980.204028" HC_abs="15.687549" PMx_abs="2.240899" NOx_abs="50.953189" fuel_abs="39544.515417" electricity_abs="0"/>
    </tripinfo>
    <tripinfo id="flow_nw_0.0" depart="6.00" departLane="n_t_0" departPos="5.10" departSpeed="0.00" departDelay="6.00" arrival="41.00" arrivalLane="t_w_0" arrivalPos="142.80" arrivalSpeed="12.95" duration="35.00" routeLength="289.53" waitingTime="3.00" waitingCount="1" stopTime="0.00" timeLoss="14.29" rerouteNo="0" devices="tripinfo_flow_nw_0.0 emissions_flow_nw_0.0" vType="DEFAULT_VEHTYPE" speedFactor="1.01" vaporized="">
        <emissions CO_abs="2877.457388" CO2_abs="122533.154326" HC_abs="15.860714" PMx_abs="2.314163" NOx_abs="51.156115" fuel_abs="39082.882691" electricity_abs="0"/>
    </tripinfo>
    <tripinfo id="flow_ns_0.1" depart="10.00" departLane="n_t_0" departPos="5.10" departSpeed="0.00" departDelay="0.53" arrival="43.00" arrivalLane="t_s_0" arrivalPos="142.80" arrivalSpeed="13.81" duration="33.00" routeLength="294.90" waitingTime="2.00" waitingCount="1" stopTime="0.00" timeLoss="12.68" rerouteNo="0" devices="tripinfo_flow_ns_0.1 emissions_flow_ns_0.1" vType="DEFAULT_VEHTYPE" speedFactor="1.05" vaporized="">
        <emissions CO_abs="2564.173948" CO2_abs="123311.295291" HC_abs="14.549924" PMx_abs="2.384919" NOx_abs="51.879250" fuel_abs="39330.809605" electricity_abs="0"/>
    </tripinfo>
    <tripinfo id="flow_nw_0.1" depart="17.00" departLane="n_t_0" departPos="5.10" departSpeed="0.00" departDelay="0.64" arrival="44.00" arrivalLane="t_w_0" arrivalPos="142.80" arrivalSpeed="15.39" duration="27.00" routeLength="289.53" waitingTime="0.00" waitingCount="0" stopTime="0.00" timeLoss="8.04" rerouteNo="0" devices="tripinfo_flow_nw_0.1 emissions_flow_nw_0.1" vType="DEFAULT_VEHTYPE" speedFactor="1.12" vaporized="">
        <emissions CO_abs="1887.820518" CO2_abs="116460.904227" HC_abs="11.280097" PMx_abs="2.163514" NOx_abs="48.077227" fuel_abs="37145.612706" electricity_abs="0"/>
    </tripinfo>
    <tripinfo id="flow_ns_0.2" depart="20.00" departLane="n_t_0" departPos="5.10" departSpeed="0.00" departDelay="1.05" arrival="48.00" arrivalLane="t_s_0" arrivalPos="142.80" arrivalSpeed="12.96" duration="28.00" routeLength="294.90" waitingTime="0.00" waitingCount="0" stopTime="0.00" timeLoss="5.74" rerouteNo="0" devices="tripinfo_flow_ns_0.2 emissions_flow_ns_0.2" vType="DEFAULT_VEHTYPE" speedFactor="0.99" vaporized="">
        <emissions CO_abs="1388.078229" CO2_abs="96129.105710" HC_abs="8.524772" PMx_abs="1.602287" NOx_abs="38.554162" fuel_abs="30660.824160" electricity_abs="0"/>
    </tripinfo>
    <tripinfo id="flow_sn_0.1" depart="26.00" departLane="s_t_0" departPos="5.10" departSpeed="0.00" departDelay="0.29" arrival="53.00" arrivalLane="t_n_0" arrivalPos="142.80" arrivalSpeed="11.73" duration="27.00" routeLength="294.90" waitingTime="0.00" waitingCount="0" stopTime="0.00" timeLoss="4.02" rerouteNo="0" devices="tripinfo_flow_sn_0.1 emissions_flow_sn_0.1" vType="DEFAULT_VEHTYPE" speedFactor="0.93" vaporized="">
        <emissions CO_abs="1146.876339" CO2_abs="78702.500385" HC_abs="6.976716" PMx_abs="1.216519" NOx_abs="30.836570" fuel_abs="25102.647653" electricity_abs="0"/>
    </tripinfo>
    <tripinfo id="flow_en_0.0" depart="0.00" departLane="e_t_0" departPos="5.10" departSpeed="0.00" departDelay="0.00" arrival="58.00" arrivalLane="t_n_0" arrivalPos="142.80" arrivalSpeed="14.39" duration="58.00" routeLength="289.53" waitingTime="28.00" waitingCount="1" stopTime="0.00" timeLoss="37.72" rerouteNo="0" devices="tripinfo_flow_en_0.0 emissions_flow_en_0.0" vType="DEFAULT_VEHTYPE" speedFactor="1.05" vaporized="">
        <emissions CO_abs="6798.387924" CO2_abs="194323.490187" HC_abs="35.490568" PMx_abs="4.151439" NOx_abs="84.159760" fuel_abs="61981.853447" electricity_abs="0"/>
    </tripinfo>
    <tripinfo id="flow_we_0.0" depart="0.00" departLane="w_t_0" departPos="5.10" departSpeed="0.00" departDelay="0.00" arrival="61.00" arrivalLane="t_e_0" arrivalPos="142.80" arrivalSpeed="11.56" duration="61.00" routeLength="294.90" waitingTime="27.00" waitingCount="1" stopTime="0.00" timeLoss="35.49" rerouteNo="0" devices="tripinfo_flow_we_0.0 emissions_flow_we_0.0" vType="DEFAULT_VEHTYPE" speedFactor="0.86" vaporized="">
        <emissions CO_abs="6414.255004" CO2_abs="176102.997494" HC_abs="33.293049" PMx_abs="3.590867" NOx_abs="75.364294" fuel_abs="56170.555467" electricity_abs="0"/>
    </tripinfo>
    <tripinfo id="flow_wn_0.0" depart="3.00" departLane="w_t_0" departPos="5.10" departSpeed="0.00" departDelay="3.00" arrival="64.00" arrivalLane="t_n_0" arrivalPos="142.80" arrivalSpeed="15.03" duration="61.00" routeLength="294.70" waitingTime="26.00" waitingCount="2" stopTime="0.00" timeLoss="41.53" rerouteNo="0" devices="tripinfo_flow_wn_0.0 emissions_flow_wn_0.0" vType="DEFAULT_VEHTYPE" speedFactor="1.09" vaporized="">
        <emissions CO_abs="7159.511609" CO2_abs="203670.515718" HC_abs="37.372644" PMx_abs="4.403273" NOx_abs="88.737312" fuel_abs="64963.155657" electricity_abs="0"/>
    </tripinfo>
    <tripinfo id="flow_ws_0.0" depart="6.00" departLane="w_t_0" departPos="5.10" departSpeed="0.00" departDelay="6.00" arrival="67.00" arrivalLane="t_s_0" arrivalPos="142.80" arrivalSpeed="13.81" duration="61.00" routeLength="289.53" waitingTime="24.00" waitingCount="1" stopTime="0.00" timeLoss="40.18" rerouteNo="0" devices="tripinfo_flow_ws_0.0 emissions_flow_ws_0.0" vType="DEFAULT_VEHTYPE" speedFactor="1.03" vaporized="">
        <emissions CO_abs="6913.873633" CO2_abs="195837.319314" HC_abs="35.954579" PMx_abs="4.029976" NOx_abs="83.834756" fuel_abs="62464.912139" electricity_abs="0"/>
    </tripinfo>
    <tripinfo id="flow_we_0.1" depart="26.00" departLane="w_t_0" departPos="5.10" departSpeed="0.00" departDelay="0.29" arrival="70.00" arrivalLane="t_e_0" arrivalPos="142.80" arrivalSpeed="12.65" duration="44.00" routeLength="294.90" waitingTime="7.00" waitingCount="1" stopTime="0.00" timeLoss="20.93" rerouteNo="0" devices="tripinfo_flow_we_0.1 emissions_flow_we_0.1" vType="DEFAULT_VEHTYPE" speedFactor="0.94" vaporized="">
        <emissions CO_abs="3806.257329" CO2_abs="140317.676446" HC_abs="20.516208" PMx_abs="2.703660" NOx_abs="58.972602" fuel_abs="44755.658742" electricity_abs="0"/>
    </tripinfo>
    <tripinfo id="flow_ws_0.1" depart="37.00" departLane="w_t_0" departPos="5.10" departSpeed="0.00" departDelay="1.00" arrival="71.00" arrivalLane="t_s_0" arrivalPos="142.80" arrivalSpeed="12.78" duration="34.00" routeLength="289.53" waitingTime="0.00" waitingCount="0" stopTime="0.00" timeLoss="11.90" rerouteNo="0" devices="tripinfo_flow_ws_0.1 emissions_flow_ws_0.1" vType="DEFAULT_VEHTYPE" speedFactor="0.97" vaporized="">
        <emissions CO_abs="2133.000504" CO2_abs="112294.773932" HC_abs="12.349320" PMx_abs="2.036818" NOx_abs="46.375947" fuel_abs="35817.062614" electricity_abs="0"/>
    </tripinfo>
    <tripinfo id="flow_we_0.2" depart="52.00" departLane="w_t_0" departPos="5.10" departSpeed="0.00" departDelay="0.57" arrival="75.00" arrivalLane="t_e_0" arrivalPos="142.80" arrivalSpeed="15.69" duration="23.00" routeLength="294.90" waitingTime="0.00" waitingCount="0" stopTime="0.00" timeLoss="3.73" rerouteNo="0" devices="tripinfo_flow_we_0.2 emissions_flow_we_0.2" vType="DEFAULT_VEHTYPE" speedFactor="1.13" vaporized="">
        <emissions CO_abs="1120.664223" CO2_abs="89229.472299" HC_abs="6.990454" PMx_abs="1.438683" NOx_abs="34.636846" fuel_abs="28460.120404" electricity_abs="0"/>
    </tripinfo>
    <tripinfo id="flow_es_0.0" depart="3.00" departLane="e_t_0" departPos="5.10" departSpeed="0.00" departDelay="3.00" arrival="76.00" arrivalLane="t_s_0" arrivalPos="142.80" arrivalSpeed="11.58" duration="73.00" routeLength="294.70" waitingTime="36.00" waitingCount="2" stopTime="0.00" timeLoss="48.63" rerouteNo="0" devices="tripinfo_flow_es_0.0 emissions_flow_es_0.0" vType="DEFAULT_VEHTYPE" speedFactor="0.89" vaporized="">
        <emissions CO_abs="8439.375136" CO2_abs="208607.642277" HC_abs="43.298115" PMx_abs="4.517019" NOx_abs="91.151692" fuel_abs="66538.593644" electricity_abs="0"/>
    </tripinfo>
    <tripinfo id="flow_ew_0.0" depart="6.00" departLane="e_t_0" departPos="5.10" departSpeed="0.00" departDelay="6.00" arrival="77.00" arrivalLane="t_w_0" arrivalPos="142.80" arrivalSpeed="12.36" duration="71.00" routeLength="294.90" waitingTime="36.00" waitingCount="2" stopTime="0.00" timeLoss="47.80" rerouteNo="0" devices="tripinfo_flow_ew_0.0 emissions_flow_ew_0.0" vType="DEFAULT_VEHTYPE" speedFactor="0.94" vaporized="">
        <emissions CO_abs="8308.196063" CO2_abs="214827.697255" HC_abs="42.693518" PMx_abs="4.511672" NOx_abs="92.570692" fuel_abs="68522.506184" electricity_abs="0"/>
    </tripinfo>
    <tripinfo id="flow_ew_0.1" depart="26.00" departLane="e_t_0" departPos="5.10" departSpeed="0.00" departDelay="0.29" arrival="80.00" arrivalLane="t_w_0" arrivalPos="142.80" arrivalSpeed="10.94" duration="54.00" routeLength="294.90" waitingTime="14.00" waitingCount="2" stopTime="0.00" timeLoss="29.36" rerouteNo="0" devices="tripinfo_flow_ew_0.1 emissions_flow_ew_0.1" vType="DEFAULT_VEHTYPE" speedFactor="0.88" vaporized="">
        <emissions CO_abs="5089.865384" CO2_abs="154152.074493" HC_abs="26.772024" PMx_abs="3.032646" NOx_abs="65.399415" fuel_abs="49168.776991" electricity_abs="0"/>
    </tripinfo>
    <tripinfo id="flow_en_0.1" depart="38.00" departLane="e_t_0" departPos="5.10" departSpeed="0.00" departDelay="2.00" arrival="80.00" arrivalLane="t_n_0" arrivalPos="142.80" arrivalSpeed="13.75" duration="42.00" routeLength="289.53" waitingTime="9.00" waitingCount="1" stopTime="0.00" timeLoss="20.46" rerouteNo="0" devices="tripinfo_flow_en_0.1 emissions_flow_en_0.1" vType="DEFAULT_VEHTYPE" speedFactor="1.01" vaporized="">
        <emissions CO_abs="3626.080887" CO2_abs="141947.942662" HC_abs="19.816657" PMx_abs="2.791994" NOx_abs="59.974633" fuel_abs="45275.453070" electricity_abs="0"/>
    </tripinfo>
    <tripinfo id="flow_ew_0.2" depart="52.00" departLane="e_t_0" departPos="5.10" departSpeed="0.00" departDelay="0.57" arrival="83.00" arrivalLane="t_w_0" arrivalPos="142.80" arrivalSpeed="12.39" duration="31.00" routeLength="294.90" waitingTime="0.00" waitingCount="0" stopTime="0.00" timeLoss="7.75" rerouteNo="0" devices="tripinfo_flow_ew_0.2 emissions_flow_ew_0.2" vType="DEFAULT_VEHTYPE" speedFactor="0.95" vaporized="">
        <emissions CO_abs="1786.167737" CO2_abs="102245.251061" HC_abs="10.408310" PMx_abs="1.811094" NOx_abs="41.742081" fuel_abs="32611.658285" electricity_abs="0"/>
    </tripinfo>
    <tripinfo id="flow_en_0.2" depart="72.00" departLane="e_t_0" departPos="5.10" departSpeed="0.00" departDelay="0.00" arrival="97.00" arrivalLane="t_n_0" arrivalPos="142.80" arrivalSpeed="13.23" duration="25.00" routeLength="289.53" waitingTime="0.00" waitingCount="0" stopTime="0.00" timeLoss="3.82" rerouteNo="0" devices="tripinfo_flow_en_0.2 emissions_flow_en_0.2" vType="DEFAULT_VEHTYPE" speedFactor="0.99" vaporized="">
        <emissions CO_abs="1175.353126" CO2_abs="83306.709568" HC_abs="7.302950" PMx_abs="1.394855" NOx_abs="33.330403" fuel_abs="26571.051394" electricity_abs="0"/>
    </tripinfo>
    <tripinfo id="flow_ws_0.2" depart="72.00" departLane="w_t_0" departPos="5.10" departSpeed="0.00" departDelay="0.00" arrival="97.00" arrivalLane="t_s_0" arrivalPos="142.80" arrivalSpeed="12.96" duration="25.00" routeLength="289.53" waitingTime="0.00" waitingCount="0" stopTime="0.00" timeLoss="4.05" rerouteNo="0" devices="tripinfo_flow_ws_0.2 emissions_flow_ws_0.2" vType="DEFAULT_VEHTYPE" speedFactor="1.02" vaporized="">
        <emissions CO_abs="1202.296350" CO2_abs="82793.725700" HC_abs="7.324600" PMx_abs="1.388665" NOx_abs="33.031981" fuel_abs="26407.440079" electricity_abs="0"/>
    </tripinfo>
    <tripinfo id="flow_nw_0.2" depart="33.00" departLane="n_t_0" departPos="5.10" departSpeed="0.00" departDelay="0.27" arrival="104.00" arrivalLane="t_w_0" arrivalPos="142.80" arrivalSpeed="15.57" duration="71.00" routeLength="289.53" waitingTime="43.00" waitingCount="1" stopTime="0.00" timeLoss="52.52" rerouteNo="0" devices="tripinfo_flow_nw_0.2 emissions_flow_nw_0.2" vType="DEFAULT_VEHTYPE" speedFactor="1.16" vaporized="">
        <emissions CO_abs="9279.138782" CO2_abs="243686.198892" HC_abs="47.922072" PMx_abs="5.342798" NOx_abs="106.365338" fuel_abs="77727.016627" electricity_abs="0"/>
    </tripinfo>
    <tripinfo id="flow_se_0.1" depart="36.00" departLane="s_t_0" departPos="5.10" departSpeed="0.00" departDelay="0.00" arrival="104.00" arrivalLane="t_e_0" arrivalPos="142.80" arrivalSpeed="13.49" duration="68.00" routeLength="289.53" waitingTime="39.00" waitingCount="1" stopTime="0.00" timeLoss="46.63" rerouteNo="0" devices="tripinfo_flow_se_0.1 emissions_flow_se_0.1" vType="DEFAULT_VEHTYPE" speedFactor="1.02" vaporized="">
        <emissions CO_abs="8379.953982" CO2_abs="219032.136624" HC_abs="43.177642" PMx_abs="4.665209" NOx_abs="94.525535" fuel_abs="69863.452709" electricity_abs="0"/>
    </tripinfo>
    <tripinfo id="flow_ns_0.3" depart="29.00" departLane="n_t_0" departPos="5.10" departSpeed="0.00" departDelay="0.58" arrival="105.00" arrivalLane="t_s_0" arrivalPos="142.80" arrivalSpeed="12.93" duration="76.00" routeLength="294.90" waitingTime="43.00" waitingCount="1" stopTime="0.00" timeLoss="52.87" rerouteNo="0" devices="tripinfo_flow_ns_0.3 emissions_flow_ns_0.3" vType="DEFAULT_VEHTYPE" speedFactor="0.94" vaporized="">
        <emissions CO_abs="9301.152427" CO2_abs="225209.583013" HC_abs="47.647375" PMx_abs="4.931144" NOx_abs="98.672922" fuel_abs="71834.103802" electricity_abs="0"/>
    </tripinfo>
    <tripinfo id="flow_se_0.2" depart="72.00" departLane="s_t_0" departPos="5.10" departSpeed="0.00" departDelay="0.00" arrival="106.00" arrivalLane="t_e_0" arrivalPos="142.80" arrivalSpeed="15.14" duration="34.00" routeLength="289.53" waitingTime="4.00" waitingCount="1" stopTime="0.00" timeLoss="15.56" rerouteNo="0" devices="tripinfo_flow_se_0.2 emissions_flow_se_0.2" vType="DEFAULT_VEHTYPE" speedFactor="1.17" vaporized="">
        <emissions CO_abs="3195.623047" CO2_abs="146656.721303" HC_abs="17.816525" PMx_abs="2.835772" NOx_abs="61.250470" fuel_abs="46777.068996" electricity_abs="0"/>
    </tripinfo>
    <tripinfo id="flow_sn_0.2" depart="52.00" departLane="s_t_0" departPos="5.10" departSpeed="0.00" departDelay="0.57" arrival="107.00" arrivalLane="t_n_0" arrivalPos="142.80" arrivalSpeed="11.64" duration="55.00" routeLength="294.90" waitingTime="22.00" waitingCount="1" stopTime="0.00" timeLoss="31.38" rerouteNo="0" devices="tripinfo_flow_sn_0.2 emissions_flow_sn_0.2" vType="DEFAULT_VEHTYPE" speedFactor="0.92" vaporized="">
        <emissions CO_abs="5664.694718" CO2_abs="165550.057552" HC_abs="29.635676" PMx_abs="3.366721" NOx_abs="70.800481" fuel_abs="52804.317964" electricity_abs="0"/>
    </tripinfo>
    <tripinfo id="flow_ns_0.4" depart="38.00" departLane="n_t_0" departPos="5.10" departSpeed="0.00" departDelay="0.10" arrival="109.00" arrivalLane="t_s_0" arrivalPos="142.80" arrivalSpeed="11.62" duration="71.00" routeLength="294.90" waitingTime="37.00" waitingCount="1" stopTime="0.00" timeLoss="46.75" rerouteNo="0" devices="tripinfo_flow_ns_0.4 emissions_flow_ns_0.4" vType="DEFAULT_VEHTYPE" speedFactor="0.89" vaporized="">
        <emissions CO_abs="8320.310754" CO2_abs="209229.221277" HC_abs="42.750752" PMx_abs="4.355207" NOx_abs="90.064560" fuel_abs="66736.979165" electricity_abs="0"/>
    </tripinfo>
    <tripinfo id="flow_sn_0.3" depart="78.00" departLane="s_t_0" departPos="5.10" departSpeed="0.00" departDelay="0.86" arrival="109.00" arrivalLane="t_n_0" arrivalPos="142.80" arrivalSpeed="16.00" duration="31.00" routeLength="294.90" waitingTime="0.00" waitingCount="0" stopTime="0.00" timeLoss="12.06" rerouteNo="0" devices="tripinfo_flow_sn_0.3 emissions_flow_sn_0.3" vType="DEFAULT_VEHTYPE" speedFactor="1.18" vaporized="">
        <emissions CO_abs="2628.979918" CO2_abs="135413.486178" HC_abs="15.072258" PMx_abs="2.679957" NOx_abs="57.251521" fuel_abs="43190.669518" electricity_abs="0"/>
    </tripinfo>
    <tripinfo id="flow_ns_0.5" depart="48.00" departLane="n_t_0" departPos="5.10" departSpeed="0.00" departDelay="0.63" arrival="112.00" arrivalLane="t_s_0" arrivalPos="142.80" arrivalSpeed="10.54" duration="64.00" routeLength="294.90" waitingTime="29.00" waitingCount="1" stopTime="0.00" timeLoss="38.29" rerouteNo="0" devices="tripinfo_flow_ns_0.5 emissions_flow_ns_0.5" vType="DEFAULT_VEHTYPE" speedFactor="0.83" vaporized="">
        <emissions CO_abs="6847.026270" CO2_abs="179174.171952" HC_abs="35.349760" PMx_abs="3.631768" NOx_abs="76.639675" fuel_abs="57150.372257" electricity_abs="0"/>
    </tripinfo>
    <tripinfo id="flow_nw_0.3" depart="51.00" departLane="n_t_0" departPos="5.10" departSpeed="0.00" departDelay="1.91" arrival="113.00" arrivalLane="t_w_0" arrivalPos="142.80" arrivalSpeed="12.05" duration="62.00" routeLength="289.53" waitingTime="28.00" waitingCount="1" stopTime="0.00" timeLoss="37.68" rerouteNo="0" devices="tripinfo_flow_nw_0.3 emissions_flow_nw_0.3" vType="DEFAULT_VEHTYPE" speedFactor="0.87" vaporized="">
        <emissions CO_abs="6782.372594" CO2_abs="179414.476567" HC_abs="35.086834" PMx_abs="3.758641" NOx_abs="77.583637" fuel_abs="57226.829926" electricity_abs="0"/>
    </tripinfo>
    <tripinfo id="flow_ns_0.6" depart="58.00" departLane="n_t_0" departPos="5.10" departSpeed="0.00" departDelay="1.16" arrival="114.00" arrivalLane="t_s_0" arrivalPos="142.80" arrivalSpeed="12.41" duration="56.00" routeLength="294.90" waitingTime="23.00" waitingCount="1" stopTime="0.00" timeLoss="33.08" rerouteNo="0" devices="tripinfo_flow_ns_0.6 emissions_flow_ns_0.6" vType="DEFAULT_VEHTYPE" speedFactor="0.93" vaporized="">
        <emissions CO_abs="6014.144615" CO2_abs="175373.470204" HC_abs="31.446213" PMx_abs="3.564528" NOx_abs="74.912069" fuel_abs="55937.638196" electricity_abs="0"/>
    </tripinfo>
    <tripinfo id="flow_nw_0.4" depart="66.00" departLane="n_t_0" departPos="5.10" departSpeed="0.00" departDelay="0.54" arrival="115.00" arrivalLane="t_w_0" arrivalPos="142.80" arrivalSpeed="15.15" duration="49.00" routeLength="289.53" waitingTime="18.00" waitingCount="1" stopTime="0.00" timeLoss="30.64" rerouteNo="0" devices="tripinfo_flow_nw_0.4 emissions_flow_nw_0.4" vType="DEFAULT_VEHTYPE" speedFactor="1.18" vaporized="">
        <emissions CO_abs="5602.480037" CO2_abs="182091.234863" HC_abs="29.776918" PMx_abs="3.894466" NOx_abs="79.159420" fuel_abs="58079.711962" electricity_abs="0"/>
    </tripinfo>
    <tripinfo id="flow_ns_0.7" depart="69.00" departLane="n_t_0" departPos="5.10" departSpeed="0.00" departDelay="2.68" arrival="116.00" arrivalLane="t_s_0" arrivalPos="142.80" arrivalSpeed="15.92" duration="47.00" routeLength="294.90" waitingTime="16.00" waitingCount="1" stopTime="0.00" timeLoss="28.05" rerouteNo="0" devices="tripinfo_flow_ns_0.7 emissions_flow_ns_0.7" vType="DEFAULT_VEHTYPE" speedFactor="1.15" vaporized="">
        <emissions CO_abs="5174.727302" CO2_abs="175974.055593" HC_abs="27.611912" PMx_abs="3.588487" NOx_abs="74.895497" fuel_abs="56128.649714" electricity_abs="0"/>
    </tripinfo>
    <tripinfo id="flow_ne_0.1" depart="72.00" departLane="n_t_0" departPos="5.10" departSpeed="0.00" departDelay="0.00" arrival="120.00" arrivalLane="t_e_0" arrivalPos="142.80" arrivalSpeed="13.16" duration="48.00" routeLength="294.70" waitingTime="13.00" waitingCount="1" stopTime="0.00" timeLoss="26.12" rerouteNo="0" devices="tripinfo_flow_ne_0.1 emissions_flow_ne_0.1" vType="DEFAULT_VEHTYPE" speedFactor="1.01" vaporized="">
        <emissions CO_abs="4700.214171" CO2_abs="164257.372448" HC_abs="25.240575" PMx_abs="3.339810" NOx_abs="70.279676" fuel_abs="52391.409133" electricity_abs="0"/>
    </tripinfo>
    <tripinfo id="flow_ns_0.8" depart="76.00" departLane="n_t_0" departPos="5.10" departSpeed="0.00" departDelay="0.21" arrival="122.00" arrivalLane="t_s_0" arrivalPos="142.80" arrivalSpeed="12.88" duration="46.00" routeLength="294.90" waitingTime="12.00" waitingCount="1" stopTime="0.00" timeLoss="23.71" rerouteNo="0" devices="tripinfo_flow_ns_0.8 emissions_flow_ns_0.8" vType="DEFAULT_VEHTYPE" speedFactor="0.97" vaporized="">
        <emissions CO_abs="4399.537917" CO2_abs="159480.807593" HC_abs="23.670343" PMx_abs="3.126837" NOx_abs="67.326718" fuel_abs="50867.913921" electricity_abs="0"/>
    </tripinfo>
    <tripinfo id="flow_nw_0.5" depart="82.00" departLane="n_t_0" departPos="5.10" departSpeed="0.00" departDelay="0.18" arrival="122.00" arrivalLane="t_w_0" arrivalPos="142.80" arrivalSpeed="13.23" duration="40.00" routeLength="289.53" waitingTime="8.00" waitingCount="1" stopTime="0.00" timeLoss="19.69" rerouteNo="0" devices="tripinfo_flow_nw_0.5 emissions_flow_nw_0.5" vType="DEFAULT_VEHTYPE" speedFactor="1.03" vaporized="">
        <emissions CO_abs="3806.100536" CO2_abs="149425.226249" HC_abs="20.795695" PMx_abs="2.957840" NOx_abs="63.291301" fuel_abs="47660.355665" electricity_abs="0"/>
    </tripinfo>
    <tripinfo id="flow_ns_0.9" depart="86.00" departLane="n_t_0" departPos="5.10" departSpeed="0.00" departDelay="0.73" arrival="125.00" arrivalLane="t_s_0" arrivalPos="142.80" arrivalSpeed="12.47" duration="39.00" routeLength="294.90" waitingTime="5.00" waitingCount="1" stopTime="0.00" timeLoss="16.78" rerouteNo="0" devices="tripinfo_flow_ns_0.9 emissions_flow_ns_0.9" vType="DEFAULT_VEHTYPE" speedFactor="0.96" vaporized="">
        <emissions CO_abs="3326.038233" CO2_abs="140811.335999" HC_abs="18.331537" PMx_abs="2.641735" NOx_abs="58.653108" fuel_abs="44912.886455" electricity_abs="0"/>
    </tripinfo>
    <tripinfo id="flow_ns_0.10" depart="97.00" departLane="n_t_0" departPos="5.10" departSpeed="0.00" departDelay="2.26" arrival="127.00" arrivalLane="t_s_0" arrivalPos="142.80" arrivalSpeed="14.63" duration="30.00" routeLength="294.90" waitingTime="0.00" waitingCount="0" stopTime="0.00" timeLoss="10.01" rerouteNo="0" devices="tripinfo_flow_ns_0.10 emissions_flow_ns_0.10" vType="DEFAULT_VEHTYPE" speedFactor="1.09" vaporized="">
        <emissions CO_abs="2209.596679" CO2_abs="127443.356619" HC_abs="12.962812" PMx_abs="2.431439" NOx_abs="53.442009" fuel_abs="40648.500641" electricity_abs="0"/>
    </tripinfo>
    <tripinfo id="flow_nw_0.6" depart="100.00" departLane="n_t_0" departPos="5.10" departSpeed="0.00" departDelay="1.82" arrival="128.00" arrivalLane="t_w_0" arrivalPos="142.80" arrivalSpeed="13.89" duration="28.00" routeLength="289.53" waitingTime="0.00" waitingCount="0" stopTime="0.00" timeLoss="7.06" rerouteNo="0" devices="tripinfo_flow_nw_0.6 emissions_flow_nw_0.6" vType="DEFAULT_VEHTYPE" speedFactor="1.04" vaporized="">
        <emissions CO_abs="1672.920213" CO2_abs="104594.477260" HC_abs="10.004591" PMx_abs="1.862092" NOx_abs="42.663968" fuel_abs="33360.855733" electricity_abs="0"/>
    </tripinfo>
    <tripinfo id="flow_sn_0.4" depart="105.00" departLane="s_t_0" departPos="5.10" departSpeed="0.00" departDelay="2.14" arrival="130.00" arrivalLane="t_n_0" arrivalPos="142.80" arrivalSpeed="13.44" duration="25.00" routeLength="294.90" waitingTime="0.00" waitingCount="0" stopTime="0.00" timeLoss="4.09" rerouteNo="0" devices="tripinfo_flow_sn_0.4 emissions_flow_sn_0.4" vType="DEFAULT_VEHTYPE" speedFactor="1.04" vaporized="">
        <emissions CO_abs="1142.234939" CO2_abs="82893.791229" HC_abs="6.983446" PMx_abs="1.343423" NOx_abs="32.585755" fuel_abs="26439.374267" electricity_abs="0"/>
    </tripinfo>
    <tripinfo id="flow_ns_0.11" depart="109.00" departLane="n_t_0" departPos="5.10" departSpeed="0.00" departDelay="4.79" arrival="137.00" arrivalLane="t_s_0" arrivalPos="142.80" arrivalSpeed="12.47" duration="28.00" routeLength="294.90" waitingTime="0.00" waitingCount="0" stopTime="0.00" timeLoss="4.32" rerouteNo="0" devices="tripinfo_flow_ns_0.11 emissions_flow_ns_0.11" vType="DEFAULT_VEHTYPE" speedFactor="0.90" vaporized="">
        <emissions CO_abs="1155.140161" CO2_abs="82143.538546" HC_abs="7.089954" PMx_abs="1.190173" NOx_abs="31.624224" fuel_abs="26200.262870" electricity_abs="0"/>
    </tripinfo>
    <tripinfo id="flow_se_0.3" depart="109.00" departLane="s_t_0" departPos="5.10" departSpeed="0.00" departDelay="1.00" arrival="137.00" arrivalLane="t_e_0" arrivalPos="142.80" arrivalSpeed="11.45" duration="28.00" routeLength="289.53" waitingTime="0.00" waitingCount="0" stopTime="0.00" timeLoss="3.50" rerouteNo="0" devices="tripinfo_flow_se_0.3 emissions_flow_se_0.3" vType="DEFAULT_VEHTYPE" speedFactor="0.88" vaporized="">
        <emissions CO_abs="1074.917324" CO2_abs="76845.598901" HC_abs="6.656330" PMx_abs="1.158850" NOx_abs="30.016257" fuel_abs="24510.383775" electricity_abs="0"/>
    </tripinfo>
    <tripinfo id="flow_ns_0.12" depart="114.00" departLane="n_t_0" departPos="5.10" departSpeed="0.00" departDelay="0.31" arrival="139.00" arrivalLane="t_s_0" arrivalPos="142.80" arrivalSpeed="15.22" duration="25.00" routeLength="294.90" waitingTime="0.00" waitingCount="0" stopTime="0.00" timeLoss="6.39" rerouteNo="0" devices="tripinfo_flow_ns_0.12 emissions_flow_ns_0.12" vType="DEFAULT_VEHTYPE" speedFactor="1.17" vaporized="">
        <emissions CO_abs="1454.705497" CO2_abs="101951.290729" HC_abs="8.776546" PMx_abs="1.752382" NOx_abs="40.766613" fuel_abs="32517.770563" electricity_abs="0"/>
    </tripinfo>
    <tripinfo id="flow_nw_0.7" depart="117.00" departLane="n_t_0" departPos="5.10" departSpeed="0.00" departDelay="2.45" arrival="142.00" arrivalLane="t_w_0" arrivalPos="142.80" arrivalSpeed="13.38" duration="25.00" routeLength="289.53" waitingTime="0.00" waitingCount="0" stopTime="0.00" timeLoss="4.05" rerouteNo="0" devices="tripinfo_flow_nw_0.7 emissions_flow_nw_0.7" vType="DEFAULT_VEHTYPE" speedFactor="1.02" vaporized="">
        <emissions CO_abs="1142.415286" CO2_abs="81860.481248" HC_abs="7.003393" PMx_abs="1.318598" NOx_abs="32.264259" fuel_abs="26109.815233" electricity_abs="0"/>
    </tripinfo>